/*--------------------------------*- C++ -*----------------------------------*\
| =========                 |                                                 |
| \\      /  F ield         | OpenFOAM: The Open Source CFD Toolbox           |
|  \\    /   O peration     | Version:  5.x                                   |
|   \\  /    A nd           | Web:      www.OpenFOAM.org                      |
|    \\/     M anipulation  |                                                 |
\*---------------------------------------------------------------------------*/
FoamFile
{
    version     2.0;
    format      ascii;
    class       volVectorField;
    location    "2.5";
    object      U;
}
// * * * * * * * * * * * * * * * * * * * * * * * * * * * * * * * * * * * * * //

dimensions      [0 1 -1 0 0 0 0];

internalField   nonuniform List<vector> 
12160
(
(0.105615 0 0.00101181)
(0.0777196 0 0.00246901)
(0.105657 0 -0.000695623)
(0.0876329 0 0.0042107)
(0.0776956 0 -0.000364646)
(0.105608 0 0.00138511)
(0.0750218 0 0.00544592)
(0.0874942 0 0.000482274)
(0.0776398 0 0.00476912)
(0.105372 0 -0.000384268)
(0.0648148 0 0.00596262)
(0.0749571 0 0.00207176)
(0.0876437 0 0.00902886)
(0.0768618 0 0.00164137)
(0.10523 0 0.00232679)
(0.0507859 0 0.00586166)
(0.0642536 0 0.00477929)
(0.0751961 0 0.0131047)
(0.0859178 0 0.00491948)
(0.0764987 0 0.00774836)
(0.104272 0 0.000420377)
(0.0359437 0 0.00550795)
(0.0505585 0 0.00674628)
(0.0651235 0 0.0164293)
(0.0732007 0 0.00941257)
(0.0859802 0 0.0143277)
(0.0737129 0 0.00414989)
(0.10421 0 0.00523044)
(0.0208588 0 0.0052395)
(0.0358732 0 0.0077138)
(0.0514963 0 0.0179821)
(0.0626206 0 0.0154707)
(0.0731607 0 0.0208015)
(0.0810708 0 0.00952452)
(0.073395 0 0.012466)
(0.0978346 0 0.00246912)
(0.00561454 0 0.0049416)
(0.0208562 0 0.0084376)
(0.0364201 0 0.0184105)
(0.0500638 0 0.0192869)
(0.0637767 0 0.0264771)
(0.0668452 0 0.0167147)
(0.081743 0 0.0208981)
(0.057389 0 0.00810459)
(0.0358468 0 0.0168605)
(-0.00888659 0 0.00458032)
(0.00556703 0 0.00853764)
(0.0212713 0 0.0187632)
(0.0355226 0 0.0211338)
(0.0517571 0 0.0296346)
(0.0593149 0 0.0252152)
(0.067837 0 0.0273841)
(0.0672453 0 0.014907)
(0.0010278 0 0.0189666)
(-0.231424 0 -0.0296981)
(-0.0215155 0 0.00408431)
(-0.00906054 0 0.00799594)
(0.00561156 0 0.0184402)
(0.0207382 0 0.0223777)
(0.0372942 0 0.0311796)
(0.0494929 0 0.0309318)
(0.0612183 0 0.0337371)
(0.0530426 0 0.0242464)
(0.0248425 0 0.0242162)
(-0.261024 0 0.0119566)
(0.00356557 0 0.202363)
(-0.0317628 0 0.00350506)
(-0.0218315 0 0.00676045)
(-0.00945646 0 0.0172865)
(0.00491987 0 0.0224525)
(0.0217359 0 0.0324981)
(0.0364064 0 0.034589)
(0.0516263 0 0.0385851)
(0.0505033 0 0.034055)
(0.0294978 0 0.0298796)
(-0.328828 0 0.00731851)
(0.22952 0 0.0433636)
(0.0197112 0 -0.103711)
(-0.0393934 0 0.00289054)
(-0.0321685 0 0.00510843)
(-0.0226105 0 0.0151131)
(-0.0105797 0 0.0210307)
(0.00482478 0 0.0326284)
(0.0212324 0 0.0372959)
(0.0385103 0 0.0424268)
(0.0449729 0 0.0424083)
(0.0354426 0 0.0346515)
(-0.296912 0 0.0201249)
(0.0748709 0 0.0512775)
(0.160072 0 -0.00365415)
(-0.0880819 0 0.11527)
(-0.0446033 0 0.0021797)
(-0.039896 0 0.00332971)
(-0.0331611 0 0.0123179)
(-0.0241686 0 0.0179319)
(-0.0116555 0 0.030768)
(0.00407275 0 0.0379028)
(0.0221545 0 0.0457773)
(0.0354047 0 0.0494368)
(0.0433212 0 0.0416255)
(-0.220993 0 0.0298929)
(-0.103355 0 -0.0163759)
(0.0880667 0 0.139399)
(-0.132141 0 0.0105004)
(0.0302572 0 -0.00821539)
(-0.0471618 0 0.00139813)
(-0.045131 0 0.00149302)
(-0.0409347 0 0.00929054)
(-0.0349886 0 0.013889)
(-0.0259879 0 0.0266399)
(-0.013238 0 0.0356918)
(0.00295132 0 0.0468891)
(0.0217748 0 0.0554943)
(0.0435232 0 0.049155)
(-0.15301 0 0.0397897)
(-0.215558 0 -0.0226347)
(0.0577783 0 0.125631)
(-0.0392672 0 0.0872184)
(0.0945323 0 -0.0114849)
(-0.0483306 0 0.0522448)
(-0.0473325 0 0.000675411)
(-0.0478334 0 -0.000319095)
(-0.0460455 0 0.0061052)
(-0.0429728 0 0.00962973)
(-0.0370947 0 0.021169)
(-0.0285206 0 0.0305643)
(-0.0162917 0 0.0445757)
(0.00330014 0 0.0577414)
(0.0387265 0 0.05679)
(-0.115871 0 0.0518075)
(-0.329492 0 0.000883328)
(0.0242828 0 0.106976)
(-0.0121126 0 0.0363274)
(0.0476182 0 0.10385)
(-0.0946876 0 -0.00385852)
(-0.0447951 0 -0.000175241)
(-0.048184 0 -0.00214465)
(-0.0489025 0 0.00285837)
(-0.0483061 0 0.00530552)
(-0.0450776 0 0.0153221)
(-0.0402382 0 0.0240036)
(-0.0328544 0 0.0382762)
(-0.0163123 0 0.0543481)
(0.0290335 0 0.0610855)
(-0.0842021 0 0.0619977)
(-0.368989 0 0.0206851)
(-0.0108583 0 0.102516)
(-0.00769005 0 0.0268404)
(0.043478 0 0.0901572)
(-0.0436817 0 0.0877543)
(-0.0386756 0 -0.00120465)
(-0.0456954 0 -0.00447235)
(-0.0495612 0 -0.000494114)
(-0.0512252 0 0.00101866)
(-0.0501711 0 0.00950852)
(-0.0485604 0 0.0171686)
(-0.0450341 0 0.0295951)
(-0.0337243 0 0.0458145)
(0.0169749 0 0.0592777)
(-0.0667448 0 0.0672258)
(-0.382525 0 0.0377954)
(-0.0207776 0 0.0670066)
(0.0104746 0 0.039501)
(0.014601 0 0.0788927)
(-0.0270633 0 0.0671126)
(-0.0288261 0 -0.00235261)
(-0.0398137 0 -0.00735241)
(-0.0474749 0 -0.00440876)
(-0.0520264 0 -0.00325602)
(-0.0530961 0 0.00405551)
(-0.0536391 0 0.0103582)
(-0.0533677 0 0.0203894)
(-0.0464255 0 0.0351216)
(0.00410087 0 0.0516964)
(-0.0559637 0 0.0651863)
(-0.361991 0 0.0518921)
(-0.0424042 0 0.0640808)
(0.0176281 0 0.0352468)
(0.00108351 0 0.0738391)
(-0.00886867 0 0.0591298)
(-0.0147016 0 -0.00367725)
(-0.0300847 0 -0.0107011)
(-0.042014 0 -0.00927238)
(-0.0503448 0 -0.00875006)
(-0.0545225 0 -0.00124187)
(-0.0565128 0 0.00380151)
(-0.0580863 0 0.0116525)
(-0.0549531 0 0.0247243)
(-0.00668569 0 0.0411488)
(-0.0479203 0 0.0562164)
(-0.29839 0 0.0528892)
(-0.024535 0 0.0336789)
(0.0277556 0 0.0298708)
(-0.00098344 0 0.05664)
(0.00332019 0 0.0597842)
(0.00369443 0 -0.00495364)
(-0.0160357 0 -0.0142816)
(-0.0325576 0 -0.0149848)
(-0.0454728 0 -0.015638)
(-0.0538487 0 -0.00757867)
(-0.0579403 0 -0.00266422)
(-0.0603529 0 0.00433461)
(-0.059936 0 0.0151939)
(-0.0151503 0 0.0280829)
(-0.0377672 0 0.0455928)
(-0.234549 0 0.0428057)
(0.00410879 0 0.00630784)
(0.0458587 0 0.0266003)
(-0.00907276 0 0.051631)
(0.00800973 0 0.0474302)
(0.0258682 0 -0.00604555)
(0.00243183 0 -0.0179022)
(-0.0186443 0 -0.0213322)
(-0.0366289 0 -0.0236884)
(-0.0498751 0 -0.0160783)
(-0.0580524 0 -0.0114101)
(-0.0627145 0 -0.0015746)
(-0.0632002 0 0.00702652)
(-0.0220563 0 0.0153817)
(-0.0271458 0 0.0345114)
(-0.172812 0 0.0297334)
(0.00140235 0 0.00186283)
(0.038942 0 0.0412284)
(-0.0172672 0 0.0318357)
(0.0163006 0 0.0415899)
(0.0512449 0 -0.00688506)
(0.0248018 0 -0.0211773)
(-0.000162736 0 -0.0276268)
(-0.02299 0 -0.0324066)
(-0.041587 0 -0.0266579)
(-0.0554561 0 -0.0226779)
(-0.0645272 0 -0.00898964)
(-0.0671762 0 0.000117514)
(-0.0304288 0 0.00611701)
(-0.0209201 0 0.0258946)
(-0.118721 0 0.0185278)
(-0.0426944 0 -0.00664183)
(0.026794 0 0.0572291)
(-0.0178405 0 0.0157761)
(0.0238923 0 0.0315589)
(0.0784987 0 -0.00736539)
(0.0504974 0 -0.0237134)
(0.0225533 0 -0.0332643)
(-0.00424835 0 -0.0413531)
(-0.0283498 0 -0.0386626)
(-0.0486555 0 -0.0357837)
(-0.0630912 0 -0.0204797)
(-0.0710153 0 -0.0107724)
(-0.0391888 0 0.000739021)
(-0.0213399 0 0.0189723)
(-0.0824556 0 0.0114403)
(-0.0816081 0 -0.00986345)
(0.0337116 0 0.0559746)
(-0.00119697 0 0.0135873)
(0.0186724 0 0.0281319)
(0.106001 0 -0.00744891)
(0.0781764 0 -0.0251936)
(0.0489099 0 -0.0375829)
(0.0191231 0 -0.0495537)
(-0.00976846 0 -0.0507714)
(-0.0361706 0 -0.0499341)
(-0.0571183 0 -0.0364422)
(-0.0723277 0 -0.0272756)
(-0.0474993 0 -0.00698984)
(-0.026446 0 0.0116874)
(-0.0673905 0 0.00805495)
(-0.0849878 0 -0.00208801)
(0.0425635 0 0.0309373)
(0.0196555 0 0.00523831)
(0.00252082 0 0.0304732)
(0.132716 0 -0.00713393)
(0.106148 0 -0.0254605)
(0.0774626 0 -0.0401068)
(0.0465302 0 -0.0559506)
(0.0142218 0 -0.0619477)
(-0.0172701 0 -0.0652221)
(-0.0461883 0 -0.0558401)
(-0.0682725 0 -0.0459)
(-0.0552767 0 -0.0205663)
(-0.0331442 0 -0.000724097)
(-0.0698278 0 0.00577651)
(-0.076519 0 0.00729866)
(0.0492864 0 0.00469118)
(0.0345946 0 -0.000206701)
(-0.00818282 0 0.0215278)
(0.157437 0 -0.00649508)
(0.133304 0 -0.0245493)
(0.106389 0 -0.0405253)
(0.0764514 0 -0.059704)
(0.0430151 0 -0.0705959)
(0.00787307 0 -0.0797669)
(-0.0274792 0 -0.0761011)
(-0.0566713 0 -0.0658546)
(-0.0576971 0 -0.0430628)
(-0.0348036 0 -0.0196093)
(-0.084611 0 -0.00361823)
(-0.0693696 0 0.0155413)
(0.0439102 0 -0.00177629)
(0.0376482 0 0.00335212)
(-0.0134229 0 0.00813833)
(0.17925 0 -0.00558118)
(0.158397 0 -0.0226271)
(0.134453 0 -0.0389684)
(0.106853 0 -0.0603713)
(0.0748502 0 -0.075584)
(0.0386647 0 -0.0911196)
(-0.000654676 0 -0.094095)
(-0.0374451 0 -0.0890316)
(-0.0487799 0 -0.0730555)
(-0.0325945 0 -0.0457334)
(-0.103532 0 -0.022038)
(-0.0776406 0 0.0145791)
(0.0514585 0 0.00225996)
(0.0351504 0 0.00793198)
(-0.00801546 0 -0.00108504)
(0.197609 0 -0.00447988)
(0.180497 0 -0.019987)
(0.160281 0 -0.0356667)
(0.1363 0 -0.0580517)
(0.107376 0 -0.0764593)
(0.0730044 0 -0.097883)
(0.0324646 0 -0.107964)
(-0.00915578 0 -0.113165)
(-0.0277687 0 -0.10642)
(-0.0247298 0 -0.0778635)
(-0.104513 0 -0.0507032)
(-0.117476 0 -0.010018)
(0.0702824 0 0.0164822)
(0.0361401 0 0.0048908)
(0.0047376 0 -0.00142629)
(0.212259 0 -0.00327989)
(0.199051 0 -0.0168975)
(0.182891 0 -0.0310968)
(0.163317 0 -0.0532414)
(0.138804 0 -0.0732732)
(0.108215 0 -0.0992552)
(0.0699257 0 -0.116125)
(0.0261853 0 -0.132355)
(-0.00020794 0 -0.135279)
(-0.00740559 0 -0.110661)
(-0.0828379 0 -0.0922311)
(-0.177139 0 -0.0596703)
(0.087996 0 0.0222802)
(0.043947 0 -0.00016273)
(0.0141468 0 -0.00174779)
(0.223148 0 -0.00207719)
(0.21382 0 -0.0135537)
(0.20178 0 -0.0257061)
(0.186825 0 -0.046698)
(0.167338 0 -0.0666906)
(0.142244 0 -0.095249)
(0.108705 0 -0.117623)
(0.0663101 0 -0.143736)
(0.0310476 0 -0.157018)
(0.0166212 0 -0.140679)
(-0.0609442 0 -0.136361)
(-0.160343 0 -0.103513)
(0.131694 0 -0.0265743)
(0.0657326 0 -0.0308553)
(0.020291 0 -0.0024017)
(0.230309 0 -0.000851188)
(0.224796 0 -0.0100905)
(0.216776 0 -0.0199156)
(0.206288 0 -0.0391163)
(0.191835 0 -0.0577929)
(0.172943 0 -0.0867469)
(0.146225 0 -0.112418)
(0.107606 0 -0.146342)
(0.0660188 0 -0.169649)
(0.0499149 0 -0.164843)
(-0.0204249 0 -0.175905)
(-0.10098 0 -0.149213)
(0.146269 0 -0.122328)
(0.0944632 0 -0.0796227)
(0.021534 0 -0.0126212)
(0.234101 0 0.000473342)
(0.232082 0 -0.0066019)
(0.227866 0 -0.0139776)
(0.221573 0 -0.0310499)
(0.211866 0 -0.0476164)
(0.199022 0 -0.0748423)
(0.179875 0 -0.101602)
(0.146984 0 -0.139986)
(0.101848 0 -0.171931)
(0.0840685 0 -0.180833)
(0.0345059 0 -0.205658)
(-0.0466491 0 -0.19549)
(0.128814 0 -0.181753)
(0.0883508 0 -0.11258)
(-0.00236025 0 -0.0534922)
(0.233813 0 0.00192427)
(0.235737 0 -0.00306548)
(0.235161 0 -0.00797411)
(0.232856 0 -0.0228369)
(0.227468 0 -0.0368722)
(0.219938 0 -0.0617149)
(0.208128 0 -0.0879909)
(0.182189 0 -0.126695)
(0.136407 0 -0.163535)
(0.121987 0 -0.184548)
(0.117628 0 -0.216085)
(0.000733709 0 -0.234278)
(0.0851729 0 -0.21832)
(0.0649153 0 -0.13248)
(-0.0129132 0 -0.109102)
(0.231157 0 0.00275716)
(0.235851 0 0.000302552)
(0.23885 0 -0.0018091)
(0.240439 0 -0.0145907)
(0.238902 0 -0.0259995)
(0.235925 0 -0.0487345)
(0.229505 0 -0.0718914)
(0.210692 0 -0.107564)
(0.169412 0 -0.145816)
(0.163403 0 -0.178146)
(0.181973 0 -0.217826)
(0.0316934 0 -0.257386)
(0.0447551 0 -0.244014)
(0.0546048 0 -0.168668)
(-0.000505621 0 -0.148997)
(0.225054 0 0.00388623)
(0.2326 0 0.00367581)
(0.239036 0 0.00432049)
(0.244304 0 -0.00619847)
(0.246587 0 -0.015106)
(0.247393 0 -0.0363773)
(0.244647 0 -0.0546428)
(0.231876 0 -0.0867623)
(0.198407 0 -0.12135)
(0.206439 0 -0.163967)
(0.239387 0 -0.213243)
(0.0509759 0 -0.259642)
(0.0098585 0 -0.248461)
(0.0330889 0 -0.203154)
(0.0044532 0 -0.181184)
(0.216301 0 0.00490526)
(0.226237 0 0.00690074)
(0.235712 0 0.010069)
(0.244265 0 0.00230301)
(0.25062 0 -0.00385762)
(0.255849 0 -0.0236326)
(0.255903 0 -0.0381636)
(0.246672 0 -0.0680023)
(0.220889 0 -0.0943365)
(0.251733 0 -0.142368)
(0.298277 0 -0.198022)
(0.0715126 0 -0.24903)
(-0.0174785 0 -0.241421)
(0.0101182 0 -0.221779)
(0.00473438 0 -0.207293)
(0.205437 0 0.00570707)
(0.217467 0 0.0096705)
(0.229092 0 0.0153723)
(0.240589 0 0.0106365)
(0.250896 0 0.00744139)
(0.26018 0 -0.0100594)
(0.263729 0 -0.0227046)
(0.256839 0 -0.0517701)
(0.234486 0 -0.0686419)
(0.299039 0 -0.114092)
(0.355051 0 -0.175794)
(0.0813152 0 -0.231833)
(-0.0545807 0 -0.227325)
(-0.0107088 0 -0.219964)
(0.0016045 0 -0.221547)
(0.193335 0 0.00633523)
(0.206493 0 0.0118495)
(0.219857 0 0.0200477)
(0.233563 0 0.0182458)
(0.247042 0 0.0183976)
(0.260185 0 0.00449287)
(0.269557 0 -0.00602847)
(0.264079 0 -0.0356742)
(0.239081 0 -0.0471724)
(0.34673 0 -0.0842418)
(0.413374 0 -0.151356)
(0.0723109 0 -0.208532)
(-0.0960473 0 -0.2005)
(-0.0244464 0 -0.204918)
(-0.00144464 0 -0.221317)
(0.179489 0 0.00668735)
(0.194343 0 0.0135423)
(0.208356 0 0.023846)
(0.22378 0 0.0247491)
(0.239244 0 0.0284561)
(0.255919 0 0.0188202)
(0.271301 0 0.0109619)
(0.26842 0 -0.0170934)
(0.236213 0 -0.0288334)
(0.391951 0 -0.0573112)
(0.467595 0 -0.127557)
(0.0462984 0 -0.177519)
(-0.124487 0 -0.161505)
(-0.0245279 0 -0.186523)
(-0.00199412 0 -0.212692)
(0.180323 0 0.0144065)
(0.158973 0 0.00724904)
(0.195679 0 0.0269028)
(0.211715 0 0.0298985)
(0.22834 0 0.0371305)
(0.247527 0 0.0316239)
(0.266845 0 0.0279869)
(0.268363 0 0.00611987)
(0.226227 0 -0.00847704)
(0.429751 0 -0.0319102)
(0.51189 0 -0.104988)
(-0.0167139 0 -0.136912)
(-0.132039 0 -0.106013)
(-0.031444 0 -0.17753)
(0.00171672 0 -0.196245)
(0.181199 0 0.0288264)
(0.159091 0 0.0152877)
(0.122625 0 0.00699873)
(0.19831 0 0.0338636)
(0.215037 0 0.0441463)
(0.235825 0 0.0422533)
(0.256682 0 0.0437545)
(0.260813 0 0.0301819)
(0.213425 0 0.016285)
(0.452698 0 -0.00233227)
(0.540823 0 -0.0756332)
(-0.0659947 0 -0.0976775)
(-0.133915 0 -0.0635614)
(-0.0386564 0 -0.155058)
(0.00926007 0 -0.170113)
(0.183224 0 0.036355)
(0.159113 0 0.0308601)
(0.122077 0 0.0141301)
(0.102539 0 0.00574156)
(0.200403 0 0.049626)
(0.221694 0 0.0505202)
(0.242586 0 0.057068)
(0.247747 0 0.0503377)
(0.203509 0 0.0415618)
(0.430684 0 0.0222634)
(0.55535 0 -0.00640813)
(-0.118696 0 -0.0500953)
(-0.136372 0 -0.0419897)
(-0.0307072 0 -0.123762)
(0.00503722 0 -0.130176)
(0.184157 0 0.0533309)
(0.159831 0 0.0386936)
(0.120868 0 0.0292406)
(0.100939 0 0.0108683)
(0.0794425 0 0.00301162)
(0.205966 0 0.056629)
(0.225932 0 0.0678061)
(0.231311 0 0.0657785)
(0.193705 0 0.0631235)
(0.381322 0 0.0451343)
(0.532965 0 0.0651777)
(-0.146713 0 0.0131461)
(-0.135707 0 -0.0323993)
(-0.0154771 0 -0.0911888)
(-0.00998248 0 -0.0930735)
(0.188605 0 0.0606324)
(0.159422 0 0.0568999)
(0.119446 0 0.0364414)
(0.0988456 0 0.0241826)
(0.0748698 0 0.00382875)
(0.0865713 0 -0.00170366)
(0.208028 0 0.076115)
(0.212519 0 0.0769367)
(0.183526 0 0.0807987)
(0.322896 0 0.0655924)
(0.479475 0 0.114922)
(-0.0574669 0 0.0778706)
(-0.135151 0 -0.0440086)
(-0.00362445 0 -0.0530418)
(-0.0279074 0 -0.0672559)
(0.188713 0 0.0820829)
(0.161488 0 0.0642668)
(0.117442 0 0.0546942)
(0.0943033 0 0.0297188)
(0.0708297 0 0.0124073)
(0.0809845 0 -0.00824171)
(0.100612 0 -0.0110345)
(0.192256 0 0.0846334)
(0.171272 0 0.0951702)
(0.273852 0 0.0828387)
(0.414344 0 0.136824)
(0.0224677 0 0.136239)
(-0.126968 0 -0.0365242)
(-0.00177467 0 -0.00652356)
(-0.0395039 0 -0.0412601)
(0.169645 0 0.0895095)
(0.159663 0 0.0870728)
(0.115805 0 0.0618695)
(0.0897087 0 0.0467641)
(0.0631437 0 0.0145173)
(0.0741926 0 -0.00467507)
(0.0816418 0 -0.0308901)
(0.166729 0 -0.00860501)
(0.158802 0 0.106487)
(0.233067 0 0.0966946)
(0.348588 0 0.144515)
(0.0602696 0 0.17004)
(-0.10102 0 0.0341519)
(-0.0322605 0 0.0429904)
(-0.0429213 0 -0.0160055)
(0.142555 0 0.114442)
(0.13443 0 0.0944324)
(0.111521 0 0.0850135)
(0.0842405 0 0.052982)
(0.0556251 0 0.0298225)
(0.0576248 0 -0.00725288)
(0.066485 0 -0.0418995)
(0.144855 0 -0.0466655)
(0.195814 0 -0.0265112)
(0.202315 0 0.10782)
(0.284895 0 0.147822)
(0.064378 0 0.187058)
(-0.077981 0 0.109351)
(-0.0670952 0 0.0857219)
(-0.0322093 0 0.0213155)
(0.174626 0 0.115753)
(0.120172 0 0.119619)
(0.0826128 0 0.0923245)
(0.076663 0 0.0760572)
(0.0454389 0 0.0350263)
(0.0408481 0 0.00501363)
(0.0428651 0 -0.0508376)
(0.110503 0 -0.0706732)
(0.184004 0 -0.0790726)
(0.354163 0 -0.00530399)
(0.235351 0 0.148327)
(0.0491833 0 0.188042)
(-0.0601702 0 0.152911)
(-0.0687045 0 0.126389)
(-0.0227638 0 0.0713352)
(0.18861 0 0.148411)
(0.138746 0 0.124491)
(0.0718787 0 0.115624)
(0.043673 0 0.0831049)
(0.0344646 0 0.05925)
(0.0214358 0 0.00779346)
(0.0220832 0 -0.0469216)
(0.0732447 0 -0.110881)
(0.172792 0 -0.126761)
(0.334679 0 -0.00649962)
(0.189748 0 0.0307213)
(0.0310133 0 0.186069)
(-0.0515427 0 0.172124)
(-0.0586866 0 0.15735)
(-0.0202733 0 0.116088)
(0.0036027 0 0.19049)
(0.127135 0 0.15415)
(0.0818399 0 0.127439)
(0.0272733 0 0.108552)
(-0.00314834 0 0.0676112)
(0.000502811 0 0.0371765)
(-0.0206699 0 -0.040933)
(0.0190888 0 -0.117923)
(0.126656 0 -0.167546)
(0.270855 0 -0.0307985)
(0.2004 0 0.0410097)
(0.300119 0 1.63942)
(-0.0559754 0 0.184065)
(-0.0511177 0 0.177078)
(-0.0177713 0 0.15005)
(-0.070746 0 0.201809)
(-0.0628643 0 0.200168)
(0.0285427 0 0.158958)
(0.00773176 0 0.125932)
(-0.0291501 0 0.0969575)
(-0.0462858 0 0.050691)
(-0.0563046 0 0.00647368)
(-0.0796738 0 -0.108073)
(0.0207493 0 -0.200295)
(0.194055 0 -0.0749947)
(0.24379 0 0.0646753)
(0.35025 0 1.34099)
(0.589157 2.68829e-27 1.94459)
(0.191486 0 1.99951)
(-0.0542984 0 0.194292)
(-0.0168436 0 0.175358)
(-0.0658394 0 0.217504)
(-0.116507 0 0.238562)
(-0.211413 0 0.260043)
(-0.192929 0 0.174255)
(-0.0881802 0 0.117629)
(-0.0840595 0 0.0829297)
(-0.101265 0 0.0350971)
(-0.144112 0 -0.0342576)
(-0.176838 0 -0.180112)
(0.0454758 0 -0.166701)
(0.314145 0 0.0508657)
(0.301322 0 1.16213)
(0.735956 1.31447e-27 1.76484)
(0.700047 -6.83373e-30 1.86457)
(0.408191 4.00746e-27 2.09832)
(0.125839 0 2.16612)
(-0.0196453 0 0.199155)
(-0.0247066 0 0.23025)
(-0.101521 0 0.26299)
(-0.246482 0 0.340698)
(-0.563333 0 0.378277)
(-0.526099 0 0.172672)
(-0.187261 0 0.0990997)
(-0.131257 0 0.0713086)
(-0.172303 0 0.0312778)
(-0.304184 0 -0.123202)
(-0.219208 0 -0.179888)
(0.193723 0 0.0166155)
(0.308227 0 0.781903)
(0.780963 0 1.66028)
(0.80127 0 1.70632)
(0.871698 3.16962e-26 1.6113)
(0.644848 -8.21207e-30 2.00245)
(0.395852 4.59123e-27 2.28871)
(0.131974 0 2.4511)
(-0.0409336 0 0.29132)
(-0.201199 0 0.391202)
(-0.476141 0 0.481699)
(-0.960581 0 0.293827)
(-0.579187 0 0.1377)
(-0.232627 0 0.0673792)
(-0.15327 0 0.0751996)
(-0.295883 0 0.00505869)
(-0.4916 0 -0.129937)
(-0.222456 0 -0.0350339)
(0.182302 0 0.641039)
(0.775846 0 1.41743)
(0.849438 0 1.61872)
(0.939494 8.37476e-26 1.45198)
(1.00681 -8.84027e-30 1.18362)
(0.829304 3.84263e-26 1.74503)
(0.609777 0 2.22183)
(0.314277 0 2.49229)
(0.0737462 0 2.5952)
(-0.0880339 0 0.4392)
(-0.340204 0 0.598762)
(-0.898512 0 0.392106)
(-1.04391 0 0.0923758)
(-0.490799 0 0.0864204)
(-0.235882 0 0.0381478)
(-0.108436 0 0.106446)
(-0.596791 0 -0.0542112)
(-0.54389 0 -0.12006)
(-0.0346636 0 0.427211)
(0.633345 0 1.23435)
(0.883596 -8.39827e-27 1.4298)
(0.978501 5.25618e-26 1.38996)
(1.06906 0 1.07162)
(1.21874 1.38047e-25 0.843483)
(1.03202 -1.10023e-29 1.3698)
(0.799166 1.38711e-25 1.98218)
(0.560028 0 2.41349)
(0.310595 0 2.68926)
(0.0995346 0 2.79427)
(-0.157952 0 0.643885)
(-0.567298 0 0.548031)
(-1.12214 0 0.0858497)
(-0.90075 0 -0.0591148)
(-0.356401 0 0.00251243)
(-0.0835086 0 0.134336)
(-0.393817 0 0.122819)
(-0.711146 0 -0.116371)
(-0.377088 0 0.160207)
(0.418642 0 0.932899)
(0.806059 -1.55387e-26 1.3181)
(1.0256 0 1.26493)
(1.10178 -1.28005e-25 1.01233)
(1.15459 -2.20035e-25 0.64875)
(1.34101 5.31976e-10 0.53204)
(1.26734 0 0.994376)
(1.06094 0 1.57472)
(0.771838 2.04042e-25 2.19056)
(0.527048 -1.93287e-26 2.63845)
(0.233151 0 2.87629)
(0.0478007 0 2.89528)
(-0.227002 0 0.603105)
(-0.797171 0 0.18665)
(-1.10037 0 -0.13205)
(-0.670305 0 -0.115625)
(-0.165238 0 -0.0122461)
(-0.0255616 0 0.317381)
(-0.741022 0 -0.0679162)
(-0.68594 0 -0.0850461)
(0.0668226 0 0.604975)
(0.652982 2.81539e-42 1.09063)
(0.96431 0 1.19814)
(1.09005 2.34021e-25 0.936596)
(1.17503 -1.4127e-24 0.648035)
(1.26306 3.63779e-11 0.449629)
(1.32755 1.43332e-09 0.241461)
(1.35104 -6.15751e-10 0.523446)
(1.32426 8.49656e-10 0.241365)
(1.35083 2.09939e-09 0.237561)
(1.34815 5.83812e-10 0.238432)
(1.26651 4.28457e-25 1.114)
(1.04609 3.28122e-25 1.76539)
(0.708213 1.0127e-25 2.40167)
(0.416647 -2.6431e-26 2.81535)
(0.157558 0 2.9898)
(0.0383301 0 2.94385)
(-0.318476 0 0.201297)
(-0.709529 0 -0.197513)
(-0.901715 0 -0.186132)
(-0.551894 0 -0.0682304)
(-0.0685744 0 0.18876)
(-0.0982873 0 0.174715)
(-0.742906 0 -0.17653)
(-0.297131 0 0.244915)
(0.405504 3.89892e-42 0.885142)
(0.901207 0 1.04113)
(1.0693 0 0.853684)
(1.20786 6.47213e-26 0.657035)
(1.12784 -2.84151e-25 0.339443)
(1.35353 -4.22326e-10 0.207247)
(1.37915 1.38909e-09 0.281203)
(1.33812 1.30058e-09 0.0468583)
(1.31197 -1.43894e-09 0.640831)
(1.37579 9.43416e-10 0.280154)
(1.42199 1.09486e-09 0.299288)
(1.41956 9.37821e-10 0.297715)
(1.33061 4.04287e-10 0.0477502)
(1.36503 1.24294e-09 0.0510458)
(1.35779 1.63456e-10 0.0548184)
(1.19957 -9.12075e-25 1.29463)
(0.940382 -8.51478e-25 1.97098)
(0.560195 0 2.57443)
(0.266367 -1.83668e-27 2.9292)
(0.0263572 0 3.03525)
(-0.0383277 0 2.93729)
(-0.222347 0 -0.305521)
(-0.494405 0 -0.334051)
(-0.69414 0 -0.139373)
(-0.446469 0 0.123161)
(0.0870842 0 0.47785)
(-0.713154 0 -0.353813)
(-0.447658 0 -0.00711499)
(-0.0282803 -4.7272e-27 0.485869)
(0.753847 8.59628e-27 0.888676)
(0.98198 7.34895e-26 0.76793)
(1.17929 0 0.632878)
(1.14014 -2.84676e-24 0.325404)
(1.24242 -1.78482e-09 0.178167)
(1.26568 1.07815e-09 -0.0557829)
(1.26322 -2.13308e-09 -0.0567444)
(1.29109 2.01594e-10 -0.0226118)
(1.2907 2.91757e-10 -0.0245783)
(1.37847 9.857e-10 0.0539065)
(1.32417 -1.51336e-09 -0.0926482)
(1.35571 7.86373e-25 0.779786)
(1.50115 7.85589e-10 0.151982)
(1.37113 4.09326e-10 0.0534908)
(1.40164 7.4429e-10 0.0239927)
(1.39534 6.19575e-10 0.0206676)
(1.31693 -2.22926e-09 -0.0952753)
(1.31307 -1.92506e-09 -0.0380214)
(1.30882 -2.2019e-09 -0.0412198)
(1.0959 -3.34964e-24 1.45047)
(0.755294 0 2.13608)
(0.324051 0 2.69214)
(0.0154207 1.19275e-26 2.95363)
(-0.122893 0 2.96573)
(-0.0814239 0 2.78788)
(-0.0859904 0 -0.403214)
(-0.335481 0 -0.308003)
(-0.463339 0 -0.0119987)
(-0.255778 0 0.289035)
(-0.163696 0 0.418249)
(-0.763329 0 -0.186805)
(-0.260695 0 0.15729)
(0.476638 5.65294e-27 0.652236)
(0.855041 0 0.628431)
(1.16788 3.22664e-25 0.561862)
(1.21963 -3.1218e-25 0.309205)
(1.23282 -1.21153e-09 0.181951)
(1.19675 7.09862e-11 -0.0323399)
(1.19728 1.93112e-10 -0.0326837)
(1.2176 1.5378e-10 -0.0521105)
(1.21824 1.41702e-10 -0.0522363)
(1.23247 1.93312e-09 -0.167191)
(1.23099 -2.45225e-09 -0.168281)
(1.29281 -8.51199e-10 -0.147954)
(1.29308 -2.55218e-10 -0.147393)
(1.3758 -3.2073e-09 -0.0898922)
(1.41199 1.67608e-08 -0.251422)
(1.16554 2.46497e-08 -0.260968)
(1.39068 1.28692e-08 -0.246549)
(1.22487 3.43449e-09 -0.249717)
(1.26502 -1.17997e-23 0.888583)
(1.53533 3.66086e-09 0.20198)
(1.44046 6.84135e-10 -0.182156)
(1.44129 3.50138e-10 -0.179437)
(1.39557 1.06442e-09 -0.155143)
(1.39133 -3.29825e-09 -0.150967)
(1.36987 -1.75463e-09 -0.0929847)
(1.4173 -2.57922e-09 -0.152338)
(1.41248 -8.97953e-10 -0.153694)
(1.40514 -8.17386e-09 -0.2507)
(1.1739 -1.35574e-08 -0.25356)
(1.38653 -2.35235e-09 -0.245081)
(1.21432 -3.38656e-09 -0.247615)
(1.40503 1.90377e-08 -0.237026)
(1.14762 2.86458e-08 -0.153982)
(1.37121 1.86082e-08 -0.284982)
(1.21207 3.76821e-09 -0.210589)
(1.40032 -1.10957e-08 -0.237204)
(1.16905 -1.54673e-08 -0.1475)
(1.3712 -8.36066e-09 -0.284155)
(1.20934 -3.78083e-09 -0.210341)
(0.863462 0 1.63152)
(0.436691 -6.72758e-25 2.27098)
(-0.00924289 0 2.69274)
(-0.232066 2.61288e-26 2.87169)
(-0.305221 0 2.8298)
(-0.138349 0 2.56711)
(-0.0593776 0 -0.315858)
(-0.236881 0 -0.166732)
(-0.176717 0 0.119613)
(-0.049661 0 0.0222565)
(-0.194539 0 -0.321995)
(-0.438857 0 -0.0242496)
(0.164884 0 0.303703)
(0.605029 0 0.46219)
(1.0547 3.76355e-25 0.434119)
(1.20441 8.0096e-25 0.232485)
(1.27244 -6.65007e-10 0.158019)
(1.20682 3.95968e-10 -0.0410021)
(1.20672 1.12265e-10 -0.0407477)
(1.22559 7.62898e-10 -0.0537906)
(1.2239 7.60348e-11 -0.0528153)
(1.22898 -2.45597e-09 -0.144063)
(1.23122 -2.41472e-10 -0.14277)
(1.236 -3.08726e-09 -0.145404)
(1.23788 -5.73622e-10 -0.144721)
(1.0851 3.33698e-09 -0.328894)
(1.16857 4.14722e-09 -0.190762)
(1.27378 3.08212e-09 -0.34363)
(1.12261 3.73673e-09 -0.308271)
(1.31973 3.78644e-09 -0.311815)
(1.31649 4.67435e-09 -0.385759)
(1.18552 -3.07738e-09 -0.190513)
(1.08765 -9.19997e-10 -0.325548)
(1.2737 -3.07276e-09 -0.342838)
(1.12304 -2.34312e-09 -0.30624)
(1.31895 -4.20159e-09 -0.311322)
(1.31909 -4.2905e-09 -0.385347)
(1.15059 4.77453e-09 -0.304613)
(1.33908 6.1232e-09 -0.298097)
(1.16442 3.5111e-09 -0.314359)
(1.35797 5.39848e-09 -0.299812)
(1.15371 -3.41022e-09 -0.302521)
(1.33931 -4.57932e-09 -0.296943)
(1.16492 -2.86645e-09 -0.311761)
(1.35737 -4.5973e-09 -0.298798)
(1.44648 1.64497e-08 -0.257301)
(1.17385 2.54203e-08 -0.274734)
(1.40343 1.21337e-08 -0.258202)
(1.24325 3.36376e-09 -0.268563)
(1.34527 1.84945e-09 -0.324009)
(1.21577 1.5009e-09 -0.329269)
(1.32889 1.60433e-09 -0.331208)
(1.25181 8.78588e-10 -0.319772)
(1.04713 -1.06688e-23 1.0146)
(1.40786 3.51743e-09 0.221274)
(1.45136 2.2748e-10 -0.181556)
(1.45243 2.37881e-10 -0.181393)
(1.46191 7.73998e-10 -0.164706)
(1.46333 2.84218e-10 -0.163404)
(1.4464 -1.12107e-10 -0.374357)
(1.4464 -1.6835e-09 -0.374114)
(1.35907 1.68433e-09 -0.318152)
(1.36097 -3.22296e-09 -0.319531)
(1.44093 -8.17252e-09 -0.257125)
(1.18625 -1.40648e-08 -0.265223)
(1.40072 -2.80754e-09 -0.256162)
(1.23944 -3.39851e-09 -0.267163)
(1.47939 1.80773e-08 -0.295585)
(1.22794 3.17058e-08 -0.34438)
(1.45766 1.96981e-08 -0.210163)
(1.2971 3.75219e-09 -0.326088)
(1.47432 -1.05006e-08 -0.294118)
(1.25257 -1.65959e-08 -0.342004)
(1.45787 -8.99994e-09 -0.210512)
(1.29165 -3.72473e-09 -0.321316)
(1.34176 -1.61013e-09 -0.32371)
(1.2224 -1.38727e-09 -0.331208)
(1.32865 -1.19181e-09 -0.331375)
(1.24689 -1.20585e-09 -0.317155)
(1.32803 2.34134e-09 -0.323761)
(1.23221 1.39018e-09 -0.27196)
(1.3263 -2.22273e-09 -0.323245)
(1.23053 -1.48431e-09 -0.271127)
(0.493915 -2.28156e-25 1.75069)
(-0.0113554 0 2.2619)
(-0.390594 0 2.61882)
(-0.535232 0 2.70323)
(-0.467867 0 2.56)
(-0.201216 0 2.2473)
(-0.0486014 0 -0.172103)
(-0.126179 0 -0.0330312)
(-0.0164588 0 0.0810185)
(0.00359053 0 -0.107622)
(-0.333899 0 -0.439474)
(0.0352141 0 0.0905111)
(0.373274 0 0.227166)
(0.839514 0 0.268724)
(1.18259 2.32961e-25 0.177753)
(1.37296 -5.42073e-10 0.0811938)
(1.31934 7.2903e-10 -0.0520148)
(1.31849 -4.8561e-12 -0.0515191)
(1.34645 1.16885e-09 -0.0630271)
(1.34509 1.20004e-10 -0.0620932)
(1.22164 -3.10585e-09 -0.130748)
(1.22346 -1.32806e-10 -0.131006)
(1.25387 -3.47379e-09 -0.132358)
(1.25681 6.03003e-10 -0.1352)
(1.11535 4.71421e-09 -0.291979)
(1.29797 5.40346e-09 -0.294184)
(1.11606 7.68549e-09 -0.289405)
(1.29715 6.77099e-09 -0.292063)
(1.12202 -3.16591e-09 -0.291462)
(1.29922 -4.7091e-09 -0.293314)
(1.1297 -3.96906e-09 -0.28774)
(1.29961 -5.37806e-09 -0.290639)
(1.13611 9.13676e-09 -0.267718)
(1.30464 7.22253e-09 -0.27864)
(1.12713 8.34785e-09 -0.279098)
(1.30453 7.19333e-09 -0.288067)
(1.15142 -4.49967e-09 -0.270866)
(1.30705 -4.80096e-09 -0.278891)
(1.14268 -4.31073e-09 -0.281597)
(1.30695 -5.44647e-09 -0.288154)
(1.17083 1.04437e-09 -0.300757)
(1.11047 5.56559e-11 -0.352627)
(1.2557 9.17344e-11 -0.35917)
(1.26298 1.48821e-09 -0.3944)
(1.16231 1.60112e-10 -0.364316)
(1.28837 1.87041e-10 -0.341753)
(1.18593 -1.82333e-10 -0.300879)
(1.11201 -3.83051e-11 -0.349306)
(1.26691 -9.51739e-10 -0.394449)
(1.25575 -7.73046e-11 -0.357924)
(1.16192 -2.28756e-10 -0.36426)
(1.2878 -2.90767e-10 -0.341496)
(1.18386 2.4916e-10 -0.347875)
(1.28472 5.16394e-10 -0.337903)
(1.20534 2.4467e-10 -0.355323)
(1.31711 5.63829e-10 -0.354745)
(1.18761 -2.65571e-10 -0.349379)
(1.28468 -4.53952e-10 -0.338285)
(1.20642 -2.49391e-10 -0.35539)
(1.31685 -5.05331e-10 -0.354524)
(1.37266 1.76213e-09 -0.353106)
(1.21903 1.72212e-09 -0.345392)
(1.33333 1.56734e-09 -0.343468)
(1.27422 9.67475e-10 -0.364576)
(1.30902 5.86552e-10 -0.413544)
(1.24233 2.66821e-10 -0.404648)
(1.28407 3.0607e-10 -0.406169)
(1.27506 2.89943e-10 -0.409923)
(0.615498 0 1.0877)
(1.10983 2.53122e-09 0.245354)
(1.31029 -1.66301e-09 -0.181859)
(1.30958 2.03543e-10 -0.184057)
(1.32803 -9.53344e-10 -0.200757)
(1.32844 5.06812e-11 -0.201075)
(1.45768 3.42111e-09 -0.437404)
(1.46057 -5.33961e-09 -0.438856)
(1.46899 2.20187e-09 -0.409567)
(1.47217 -3.66177e-09 -0.41107)
(1.29825 8.65065e-09 -0.528441)
(1.50881 5.37443e-09 -0.525102)
(1.27927 5.5805e-09 -0.523738)
(1.48828 4.60974e-09 -0.505709)
(1.30336 -3.73488e-09 -0.525356)
(1.50887 -5.10818e-09 -0.52422)
(1.28203 -3.0224e-09 -0.521786)
(1.48823 -5.09427e-09 -0.505337)
(1.22478 3.91962e-09 -0.519502)
(1.2463 5.09142e-09 -0.485604)
(1.40415 3.01399e-09 -0.456351)
(1.21813 4.8086e-09 -0.48851)
(1.43234 4.12552e-09 -0.469813)
(1.40914 6.21005e-09 -0.271889)
(1.23351 -2.47089e-09 -0.521031)
(1.26198 -3.78498e-09 -0.484059)
(1.40625 -4.0935e-09 -0.456626)
(1.2232 -2.56379e-09 -0.488018)
(1.43339 -5.01962e-09 -0.469985)
(1.41148 -5.6883e-09 -0.271733)
(1.36991 -1.6761e-09 -0.352968)
(1.22867 -1.48699e-09 -0.349199)
(1.33378 -1.32574e-09 -0.343954)
(1.27015 -1.18234e-09 -0.364863)
(1.41661 2.88904e-09 -0.352995)
(1.32628 1.62764e-09 -0.396657)
(1.41301 -2.64835e-09 -0.353068)
(1.32029 -1.56176e-09 -0.396785)
(1.30477 -5.56855e-10 -0.412574)
(1.242 -3.44232e-10 -0.405367)
(1.28368 -4.30907e-10 -0.406401)
(1.26303 -1.97757e-10 -0.406906)
(1.28873 6.55035e-10 -0.396612)
(1.23544 4.56155e-10 -0.372187)
(1.28887 -8.02234e-10 -0.397368)
(1.23597 -5.72748e-10 -0.373156)
(-0.0583524 -1.41996e-24 1.74884)
(-0.521602 0 2.18407)
(-0.809055 0 2.40648)
(-0.812582 0 2.4293)
(-0.624189 0 2.23678)
(-0.256027 0 1.83647)
(-0.0145346 0 -0.0558069)
(-0.0210146 0 -0.0682774)
(0.00749303 0 -0.0959895)
(-0.243639 0 -0.461037)
(-0.0552171 0 -0.233465)
(0.310104 2.37422e-26 0.0919903)
(0.573693 -7.21517e-26 0.0893532)
(0.982667 -2.45134e-25 0.0465337)
(1.28443 -6.70792e-10 -0.0435912)