/*--------------------------------*- C++ -*----------------------------------*\
| =========                 |                                                 |
| \\      /  F ield         | OpenFOAM: The Open Source CFD Toolbox           |
|  \\    /   O peration     | Version:  5.x                                   |
|   \\  /    A nd           | Web:      www.OpenFOAM.org                      |
|    \\/     M anipulation  |                                                 |
\*---------------------------------------------------------------------------*/
FoamFile
{
    version     2.0;
    format      ascii;
    class       surfaceVectorField;
    location    "2.5";
    object      Uf;
}
// * * * * * * * * * * * * * * * * * * * * * * * * * * * * * * * * * * * * * //

dimensions      [0 1 -1 0 0 0 0];

internalField   nonuniform List<vector> 
30582
(
(0.088034 0 0.00174688)
(0.105636 0 0.000164922)
(0.0853676 0 0.0033476)
(0.0777076 0 0.00106662)
(0.0880453 0 -0.000528663)
(0.105633 0 0.000331506)
(0.0795748 0 0.00483379)
(0.0875636 0 0.00235879)
(0.0852831 0 6.25826e-05)
(0.0776677 0 0.00217156)
(0.0880074 0 0.00309216)
(0.10549 0 0.000525206)
(0.0705363 0 0.00570656)
(0.0749894 0 0.0037464)
(0.0794769 0 0.00128407)
(0.087569 0 0.00472304)
(0.0853206 0 0.00691794)
(0.0772508 0 0.00324634)
(0.0875178 0 0.000637554)
(0.105301 0 0.000929661)
(0.0579267 0 0.00591169)
(0.0645342 0 0.00532018)
(0.0702163 0 0.00343754)
(0.0750766 0 0.00758482)
(0.0796711 0 0.0110849)
(0.0867807 0 0.00702355)
(0.0840404 0 0.00329501)
(0.0766802 0 0.00463736)
(0.0872988 0 0.00506168)
(0.104751 0 0.00144461)
(0.0433596 0 0.00568324)
(0.0506722 0 0.00625657)
(0.057538 0 0.00577155)
(0.0646885 0 0.0106693)
(0.0708017 0 0.0147817)
(0.0741984 0 0.0112611)
(0.077828 0 0.00718596)
(0.085949 0 0.00955323)
(0.0838664 0 0.0110673)
(0.0751058 0 0.00601038)
(0.0854793 0 0.00230171)
(0.104241 0 0.00270515)
(0.0283371 0 0.00537253)
(0.0359085 0 0.00656768)
(0.0432189 0 0.00723433)
(0.0510274 0 0.0124066)
(0.0584207 0 0.0172126)
(0.0638721 0 0.0158931)
(0.0685853 0 0.0124685)
(0.0731807 0 0.0150922)
(0.0778477 0 0.0175933)
(0.0835255 0 0.012004)
(0.0799336 0 0.00686112)
(0.073554 0 0.00822875)
(0.085354 0 0.0088804)
(0.101022 0 0.00405162)
(0.0130621 0 0.00508923)
(0.0208575 0 0.00679795)
(0.0283085 0 0.00807892)
(0.0361467 0 0.0130863)
(0.0439769 0 0.0181982)
(0.05078 0 0.0186102)
(0.0564578 0 0.0173958)
(0.0631987 0 0.0210099)
(0.0691642 0 0.0236645)
(0.070003 0 0.0186914)
(0.072291 0 0.0131515)
(0.0814069 0 0.0151161)
(0.0800684 0 0.0167196)
(0.065392 0 0.0103431)
(0.0742731 0 0.00531191)
(0.0668409 0 0.00979525)
(-0.00174186 0 0.00475936)
(0.00559079 0 0.0067065)
(0.0130412 0 0.00848806)
(0.0210638 0 0.0135924)
(0.028809 0 0.0185884)
(0.0359713 0 0.0197175)
(0.0428221 0 0.0202186)
(0.0509104 0 0.0244667)
(0.0578605 0 0.0280699)
(0.0615458 0 0.025779)
(0.0638116 0 0.0210027)
(0.0673411 0 0.0222061)
(0.0731439 0 0.0241699)
(0.0744941 0 0.0179358)
(0.0646282 0 0.011536)
(0.0292086 0 0.0142012)
(0.0167253 0 0.0179229)
(-0.0977888 0 -0.00673804)
(-0.0153311 0 0.0043301)
(-0.00897357 0 0.00626608)
(-0.00185146 0 0.0082644)
(0.0055893 0 0.0134532)
(0.0132722 0 0.0186003)
(0.0210048 0 0.0205069)
(0.0281291 0 0.0217613)
(0.0364084 0 0.0261412)
(0.0445815 0 0.030414)
(0.050625 0 0.03017)
(0.0544692 0 0.028099)
(0.0602666 0 0.0297208)
(0.0652627 0 0.0305888)
(0.0604398 0 0.0254728)
(0.0586969 0 0.0196181)
(0.0460441 0 0.0203509)
(0.0141483 0 0.0216148)
(-0.129998 0 0.0152321)
(-0.252712 0 -0.0086856)
(-0.113928 0 0.0920963)
(-0.0268736 0 0.00379211)
(-0.0216735 0 0.00541825)
(-0.0155786 0 0.00737268)
(-0.0092585 0 0.0125957)
(-0.00204088 0 0.0178583)
(0.00526572 0 0.0203903)
(0.0126734 0 0.0224154)
(0.0212371 0 0.0273853)
(0.0295408 0 0.0318447)
(0.0368503 0 0.0327167)
(0.0430223 0 0.0327766)
(0.0505596 0 0.0350864)
(0.0564638 0 0.0361827)
(0.0558608 0 0.0334332)
(0.0524191 0 0.0291943)
(0.0412703 0 0.0280748)
(0.0262845 0 0.027073)
(-0.151993 0 0.015409)
(-0.287119 0 0.0096169)
(-0.0157502 0 0.0289952)
(0.121805 0 0.122156)
(0.0116383 0 0.0442131)
(-0.0359117 0 0.00319508)
(-0.0319656 0 0.00431867)
(-0.0272435 0 0.0059271)
(-0.022221 0 0.0108939)
(-0.0161773 0 0.0161901)
(-0.0100181 0 0.0191141)
(-0.00294828 0 0.0217353)
(0.00487233 0 0.0274673)
(0.013134 0 0.0325638)
(0.0214842 0 0.0346869)
(0.0288991 0 0.0359545)
(0.0374584 0 0.0388912)
(0.0451638 0 0.040523)
(0.0482996 0 0.0399398)
(0.0476854 0 0.0382689)
(0.042973 0 0.0354304)
(0.032866 0 0.0322867)
(-0.133707 0 0.0253469)
(-0.318748 0 0.0137785)
(-0.126977 0 0.0282886)
(0.151334 0 0.0473557)
(0.194796 0 0.017183)
(0.0932833 0 -0.053238)
(-0.0341854 0 0.00755553)
(-0.0423546 0 0.00253196)
(-0.0396447 0 0.00313361)
(-0.0363776 0 0.00421119)
(-0.0326648 0 0.00868322)
(-0.0281436 0 0.0137031)
(-0.0233896 0 0.0165111)
(-0.0175367 0 0.0194675)
(-0.0111176 0 0.025841)
(-0.00353909 0 0.03169)
(0.00444877 0 0.0350205)
(0.0125425 0 0.037602)
(0.0216935 0 0.0419662)
(0.0304686 0 0.044117)
(0.0369575 0 0.0453158)
(0.040283 0 0.0459537)
(0.0441471 0 0.043119)
(0.0391335 0 0.0381696)
(-0.0927753 0 0.032786)
(-0.260513 0 0.0250522)
(-0.200133 0 0.00120859)
(-0.0142707 0 0.0171506)
(0.0814688 0 0.0957222)
(0.122782 0 0.0685091)
(0.0139656 0 0.0053828)
(-0.105994 0 0.0624194)
(-0.0289119 0 0.0492077)
(-0.046133 0 0.00178543)
(-0.0448671 0 0.00187076)
(-0.0428866 0 0.00240319)
(-0.0404154 0 0.00629939)
(-0.0374152 0 0.0107908)
(-0.0340749 0 0.0131135)
(-0.0298638 0 0.0158925)
(-0.0250783 0 0.0222977)
(-0.0190036 0 0.0286855)
(-0.0124468 0 0.0329716)
(-0.00470844 0 0.0367875)
(0.00351204 0 0.0428356)
(0.0125253 0 0.0463381)
(0.0219647 0 0.0499517)
(0.0287705 0 0.0524925)
(0.0394639 0 0.0503489)
(0.0434627 0 0.0454237)
(-0.0548446 0 0.0412596)
(-0.188962 0 0.0348854)
(-0.218276 0 0.00259759)
(-0.158781 0 -0.0195331)
(-0.0227891 0 0.0611062)
(0.0724508 0 0.132454)
(0.0243998 0 0.116217)
(-0.0884714 0 0.0492008)
(-0.0188033 0 -0.0016265)
(0.0620303 0 -0.00986466)
(-0.00903641 0 0.0248322)
(-0.0472828 0 0.00103357)
(-0.0474976 0 0.000579554)
(-0.0467466 0 0.000578882)
(-0.0455882 0 0.00378188)
(-0.0438842 0 0.00768369)
(-0.0419538 0 0.00944577)
(-0.039388 0 0.0117405)
(-0.0360417 0 0.0176645)
(-0.0318646 0 0.0238802)
(-0.0272542 0 0.0283348)
(-0.0210834 0 0.0331051)
(-0.0147649 0 0.0405223)
(-0.00681214 0 0.0457222)
(0.00312573 0 0.0515959)
(0.0126198 0 0.0566278)
(0.0302506 0 0.0571393)
(0.0415008 0 0.0530065)
(-0.0361737 0 0.0512066)
(-0.135442 0 0.0458519)
(-0.241252 0 0.0182727)
(-0.266248 0 -0.010771)
(-0.0956385 0 0.047939)
(0.0393501 0 0.116221)
(0.0228328 0 0.0748262)
(-0.0267211 0 0.0615471)
(0.00417582 0 0.0910725)
(0.0717824 0 0.0466957)
(-7.69878e-05 0 -0.00552746)
(-0.0690327 0 0.0239438)
(-0.0458951 0 0.000246304)
(-0.0477582 0 -0.000711957)
(-0.0480069 0 -0.00123995)
(-0.048368 0 0.0012148)
(-0.0477356 0 0.00446731)
(-0.0471758 0 0.00568875)
(-0.0460866 0 0.00744837)
(-0.0440252 0 0.0127038)
(-0.0415358 0 0.0182196)
(-0.0386664 0 0.0222856)
(-0.034748 0 0.0272548)
(-0.0306875 0 0.0347493)
(-0.0248248 0 0.0413978)
(-0.016302 0 0.048828)
(-0.0066048 0 0.0560297)
(0.0161667 0 0.060305)
(0.0342173 0 0.0589568)
(-0.0227378 0 0.0603808)
(-0.0989735 0 0.0569479)
(-0.242431 0 0.0352632)
(-0.355577 0 0.010872)
(-0.170176 0 0.0566389)
(0.00713835 0 0.104726)
(0.00829638 0 0.0615296)
(-0.00949379 0 0.0315418)
(0.0156829 0 0.0676856)
(0.0460666 0 0.0969428)
(0.0019686 0 0.101544)
(-0.0710915 0 0.0423555)
(-0.0415199 0 -0.000694523)
(-0.0452453 0 -0.00228478)
(-0.046765 0 -0.00331885)
(-0.0488726 0 -0.00134911)
(-0.0492665 0 0.0011673)
(-0.0500638 0 0.00198644)
(-0.0500733 0 0.00314298)
(-0.0492386 0 0.0076626)
(-0.048111 0 0.0123894)
(-0.046819 0 0.0159017)
(-0.0449221 0 0.0205558)
(-0.0426362 0 0.0271471)
(-0.0393785 0 0.0338971)
(-0.0332894 0 0.0415811)
(-0.0252534 0 0.0500432)
(0.000331149 0 0.0574269)
(0.0230467 0 0.0601736)
(-0.0188557 0 0.0653656)
(-0.0746039 0 0.064635)
(-0.233365 0 0.0495353)
(-0.373579 0 0.0293164)
(-0.194884 0 0.0431336)
(-0.0150309 0 0.084604)
(-0.000191872 0 0.0661606)
(0.00157927 0 0.0332271)
(0.00345554 0 0.0568577)
(0.0281294 0 0.0844749)
(0.00820761 0 0.0751203)
(-0.0363104 0 0.0773419)
(-0.0335535 0 -0.00178373)
(-0.0392447 0 -0.00423486)
(-0.0425361 0 -0.00592518)
(-0.0465852 0 -0.00449317)
(-0.0483006 0 -0.00246884)
(-0.0507938 0 -0.00184463)
(-0.0515572 0 -0.00113759)
(-0.0521606 0 0.00273439)
(-0.0519677 0 0.0067577)
(-0.0519051 0 0.00957209)
(-0.0516741 0 0.0137331)
(-0.0509641 0 0.0191857)
(-0.0498168 0 0.0249515)
(-0.0457298 0 0.0321348)
(-0.040533 0 0.0404206)
(-0.0148119 0 0.0487536)
(0.0102403 0 0.0554532)
(-0.0194944 0 0.063332)
(-0.0608089 0 0.066197)
(-0.214369 0 0.0591161)
(-0.370984 0 0.0449064)
(-0.212466 0 0.0483804)
(-0.0323413 0 0.0655307)
(-0.00157476 0 0.0507015)
(0.0151133 0 0.037355)
(0.00577902 0 0.0603477)
(0.00772537 0 0.0763434)
(0.00286623 0 0.0654664)
(-0.0173006 0 0.0630857)
(-0.021571 0 -0.00302081)
(-0.0294554 0 -0.00648407)
(-0.0347486 0 -0.00904163)
(-0.0409138 0 -0.00837463)
(-0.0444901 0 -0.00686219)
(-0.0489099 0 -0.0064831)
(-0.0509181 0 -0.00602746)
(-0.0532744 0 -0.00217253)
(-0.0537313 0 0.00138339)
(-0.0548044 0 0.00362328)
(-0.055484 0 0.00705063)
(-0.0558627 0 0.0114584)
(-0.056391 0 0.0159821)
(-0.0541604 0 0.0223833)
(-0.0513753 0 0.0298769)
(-0.0265557 0 0.0373155)
(-0.00139704 0 0.0463758)
(-0.0219097 0 0.0542164)
(-0.0522872 0 0.0606613)
(-0.177178 0 0.0594026)
(-0.331501 0 0.052395)
(-0.193264 0 0.0412296)
(-0.033185 0 0.0487447)
(-0.00732428 0 0.0487559)
(0.0218881 0 0.0325349)
(0.00832225 0 0.0477396)
(6.83907e-05 0 0.0651633)
(0.00220184 0 0.0636364)
(-0.00265995 0 0.0594599)
(-0.00532849 0 -0.00432111)
(-0.0153686 0 -0.00894682)
(-0.0228586 0 -0.0125073)
(-0.0313211 0 -0.012918)
(-0.0370416 0 -0.012154)
(-0.0437434 0 -0.0123342)
(-0.0476257 0 -0.0122247)
(-0.0520968 0 -0.00820243)
(-0.0539296 0 -0.00443844)
(-0.0562314 0 -0.00207077)
(-0.0571845 0 0.000540042)
(-0.0584328 0 0.00448038)
(-0.0596755 0 0.00796095)
(-0.0590112 0 0.0130846)
(-0.0582044 0 0.0199167)
(-0.0350519 0 0.0257047)
(-0.0112268 0 0.034558)
(-0.0222265 0 0.0420125)
(-0.0434486 0 0.0508574)
(-0.141235 0 0.0500673)
(-0.267698 0 0.0478024)
(-0.147142 0 0.0299829)
(-0.0106398 0 0.0198724)
(0.0106619 0 0.0310161)
(0.0372877 0 0.028221)
(0.00934128 0 0.0419025)
(-0.00533416 0 0.0541132)
(0.00351311 0 0.0501015)
(0.00598009 0 0.0535524)
(0.0149982 0 -0.00550446)
(0.00306313 0 -0.0113971)
(-0.00662311 0 -0.016108)
(-0.01734 0 -0.0178898)
(-0.0253948 0 -0.0181867)
(-0.0345933 0 -0.0192204)
(-0.0408151 0 -0.019699)
(-0.047674 0 -0.0159547)
(-0.0515142 0 -0.0118663)
(-0.0559505 0 -0.00946384)
(-0.0574787 0 -0.00707605)
(-0.0603274 0 -0.00191986)
(-0.0612736 0 0.00135387)
(-0.0617766 0 0.00528588)
(-0.0620899 0 0.0110738)
(-0.0409963 0 0.0150083)
(-0.019044 0 0.0216757)
(-0.0211481 0 0.0295068)
(-0.0331792 0 0.040003)
(-0.10529 0 0.0371055)
(-0.205801 0 0.0362115)
(-0.116574 0 0.021012)
(0.00348118 0 0.00406548)
(0.0215254 0 0.0234716)
(0.0407705 0 0.033979)
(0.0142955 0 0.0294383)
(-0.0130088 0 0.0416454)
(0.0036138 0 0.0453179)
(0.011919 0 0.044484)
(0.0387939 0 -0.00646902)
(0.025335 0 -0.0135821)
(0.0138256 0 -0.0195543)
(0.00113455 0 -0.0228625)
(-0.00922873 0 -0.0245075)
(-0.0208172 0 -0.0267945)
(-0.0295739 0 -0.0280862)
(-0.039108 0 -0.0253033)
(-0.0453841 0 -0.0214151)
(-0.0526656 0 -0.0192133)
(-0.0563715 0 -0.0170941)
(-0.0612898 0 -0.010042)
(-0.0633399 0 -0.00531508)
(-0.0649454 0 -0.000859791)
(-0.0652101 0 0.00354145)
(-0.0468146 0 0.00685852)
(-0.0267134 0 0.0107081)
(-0.0214882 0 0.0188056)
(-0.0246601 0 0.0301646)
(-0.0729336 0 0.0253633)
(-0.148417 0 0.0240809)
(-0.107754 0 0.00968614)
(-0.0203934 0 -0.00242726)
(0.0140982 0 0.0322192)
(0.0322853 0 0.0493002)
(0.0105506 0 0.0273842)
(-0.0182332 0 0.0237349)
(0.00331239 0 0.031805)
(0.0202145 0 0.0365298)
(0.065069 0 -0.00712737)
(0.0508712 0 -0.0152651)
(0.0378884 0 -0.0224566)
(0.0236775 0 -0.0273165)
(0.011394 0 -0.0304707)
(-0.00220555 0 -0.0344257)
(-0.013436 0 -0.0369196)
(-0.0256699 0 -0.0356838)
(-0.0347129 0 -0.0327136)
(-0.0451212 0 -0.0310777)
(-0.0517659 0 -0.0292891)
(-0.0592737 0 -0.0216617)
(-0.0633401 0 -0.0147858)
(-0.0677713 0 -0.0100419)
(-0.0684453 0 -0.00537585)
(-0.0531826 0 0.00079993)
(-0.0348069 0 0.00340423)
(-0.0258844 0 0.0109378)
(-0.0215999 0 0.0224026)
(-0.0516881 0 0.0172904)
(-0.102922 0 0.0149525)
(-0.100165 0 0.00323615)
(-0.062365 0 -0.00826691)
(-0.00449138 0 0.0297415)
(0.0314046 0 0.0565962)
(0.0127984 0 0.0326326)
(-0.00903336 0 0.0146719)
(0.000415851 0 0.0231421)
(0.0207751 0 0.0298302)
(0.0925323 0 -0.00740752)
(0.0783376 0 -0.0162427)
(0.0645383 0 -0.0244601)
(0.0497037 0 -0.0307479)
(0.035972 0 -0.0354427)
(0.0208382 0 -0.041345)
(0.00762006 0 -0.0454899)
(-0.00700843 0 -0.0462318)
(-0.0188852 0 -0.0447708)
(-0.0322602 0 -0.0444021)
(-0.0421058 0 -0.0429218)
(-0.0528869 0 -0.036305)
(-0.0595918 0 -0.0285319)
(-0.0677095 0 -0.0236543)
(-0.071044 0 -0.0190974)
(-0.0592574 0 -0.00868484)
(-0.0429125 0 -0.00315976)
(-0.0328174 0 0.00495824)
(-0.0240947 0 0.0152976)
(-0.0443654 0 0.0121953)
(-0.0763854 0 0.00973255)
(-0.0837217 0 0.00415191)
(-0.0856212 0 -0.0059411)
(-0.0195223 0 0.0145473)
(0.0393997 0 0.043345)
(0.0266835 0 0.0259212)
(0.00872108 0 0.00937573)
(0.000661912 0 0.0242985)
(0.0101273 0 0.029313)
(0.1198 0 -0.00729002)
(0.106074 0 -0.0164152)
(0.0924543 0 -0.0253282)
(0.0778195 0 -0.0327532)
(0.0633986 0 -0.0388561)
(0.04772 0 -0.0466822)
(0.0330714 0 -0.0527804)
(0.0166724 0 -0.0558721)
(0.0023795 0 -0.0564093)
(-0.0135192 0 -0.0581547)
(-0.0265249 0 -0.057646)
(-0.0411795 0 -0.0529845)
(-0.0512069 0 -0.0462273)
(-0.0626955 0 -0.0408423)
(-0.0698166 0 -0.0366706)
(-0.0638023 0 -0.0243067)
(-0.0508146 0 -0.0138384)
(-0.0403218 0 -0.00455819)
(-0.029381 0 0.00542647)
(-0.0481371 0 0.00767021)
(-0.0689679 0 0.00690565)
(-0.0719547 0 0.00845672)
(-0.083183 0 0.00264717)
(-0.0178507 0 0.00294475)
(0.0453877 0 0.0176973)
(0.038579 0 0.0116349)
(0.0274289 0 0.00249169)
(0.00573644 0 0.0169822)
(-0.00254783 0 0.0259608)
(0.145593 0 -0.00681166)
(0.13301 0 -0.0158061)
(0.120171 0 -0.0250009)
(0.106269 0 -0.0331006)
(0.0922304 0 -0.0403179)
(0.076957 0 -0.0498054)
(0.0617222 0 -0.057844)
(0.0447726 0 -0.0633276)
(0.0288716 0 -0.0663101)
(0.0110475 0 -0.070993)
(-0.00455264 0 -0.0725593)
(-0.0223746 0 -0.0704745)
(-0.036665 0 -0.0660605)
(-0.0514298 0 -0.0609947)
(-0.0619593 0 -0.055966)
(-0.0629849 0 -0.0450941)
(-0.0556567 0 -0.0319145)
(-0.0450402 0 -0.0217326)
(-0.0331646 0 -0.0102507)
(-0.0588778 0 -0.0025823)
(-0.0763939 0 0.00103738)
(-0.0695987 0 0.0114799)
(-0.0741756 0 0.0114564)
(-0.0163044 0 0.00391682)
(0.0464353 0 0.00142861)
(0.0434673 0 0.00242613)
(0.0374968 0 0.00158856)
(0.010586 0 0.0067382)
(-0.0105009 0 0.0147738)
(0.16888 0 -0.00603408)
(0.157917 0 -0.014527)
(0.146375 0 -0.0235796)
(0.133879 0 -0.0318642)
(0.120883 0 -0.0397399)
(0.106621 0 -0.0503497)
(0.0919508 0 -0.0600406)
(0.0756508 0 -0.0676838)
(0.0591844 0 -0.0731122)
(0.0408399 0 -0.0809383)
(0.0235157 0 -0.0854935)
(0.0036092 0 -0.0870139)
(-0.0139862 0 -0.0851782)
(-0.0324622 0 -0.0831905)
(-0.0470375 0 -0.077546)
(-0.0527256 0 -0.069214)
(-0.0530919 0 -0.0581924)
(-0.0451458 0 -0.046482)
(-0.0327584 0 -0.0327875)
(-0.0691683 0 -0.0219486)
(-0.0926785 0 -0.01291)
(-0.0811259 0 0.00592177)
(-0.072362 0 0.0150559)
(-0.00895552 0 0.0105494)
(0.0475994 0 0.000259689)
(0.0395303 0 0.00333009)
(0.0366905 0 0.00566247)
(0.0148166 0 0.00282537)
(-0.011248 0 0.00348557)
(0.188962 0 -0.00502564)
(0.179873 0 -0.0127514)
(0.169989 0 -0.0212953)
(0.159339 0 -0.0292578)
(0.147905 0 -0.0373028)
(0.135377 0 -0.0484237)
(0.122055 0 -0.0592012)
(0.107114 0 -0.068473)
(0.0914395 0 -0.0760256)
(0.0739273 0 -0.0867605)
(0.0561101 0 -0.0945315)
(0.0355647 0 -0.0998749)
(0.016143 0 -0.101091)
(-0.00490526 0 -0.104211)
(-0.0231926 0 -0.101206)
(-0.0326069 0 -0.09656)
(-0.0380845 0 -0.0898861)
(-0.0367549 0 -0.0774805)
(-0.0283441 0 -0.0619412)
(-0.0685538 0 -0.0488707)
(-0.101592 0 -0.036498)
(-0.110504 0 -0.0172105)
(-0.0958695 0 0.0021712)
(-0.00367911 0 0.018198)
(0.0598632 0 0.00943429)
(0.0437992 0 0.00425793)
(0.0351156 0 0.00639794)
(0.0199441 0 0.00412392)
(-0.00177783 0 -0.00125719)
(0.205446 0 -0.00387455)
(0.19833 0 -0.0106552)
(0.190309 0 -0.0184285)
(0.181694 0 -0.0256537)
(0.172141 0 -0.0333614)
(0.161799 0 -0.0443764)
(0.150372 0 -0.0556251)
(0.137552 0 -0.0657765)
(0.123596 0 -0.0748521)
(0.107795 0 -0.0878312)
(0.0909633 0 -0.0985751)
(0.0714651 0 -0.107374)
(0.0515184 0 -0.112081)
(0.0293249 0 -0.120427)
(0.0087272 0 -0.122845)
(-0.00468189 0 -0.12243)
(-0.0137726 0 -0.120978)
(-0.0175871 0 -0.110192)
(-0.0157714 0 -0.0944077)
(-0.0537841 0 -0.0844059)
(-0.0906919 0 -0.0716516)
(-0.140826 0 -0.0547687)
(-0.144073 0 -0.0350649)
(-0.0147402 0 0.00841413)
(0.081702 0 0.019407)
(0.0571146 0 0.00679333)
(0.0392591 0 0.00234158)
(0.0251435 0 0.00213239)
(0.00958706 0 -0.00158846)
(0.218181 0 -0.00267321)
(0.21304 0 -0.00837931)
(0.206941 0 -0.0152107)
(0.200415 0 -0.0214059)
(0.192877 0 -0.0283775)
(0.184858 0 -0.0388208)
(0.175648 0 -0.0499407)
(0.165327 0 -0.0601437)
(0.153671 0 -0.0699526)
(0.140524 0 -0.0842062)
(0.125768 0 -0.0972343)
(0.10846 0 -0.108784)
(0.0896937 0 -0.11688)
(0.0681179 0 -0.129952)
(0.046569 0 -0.138096)
(0.0286164 0 -0.142412)
(0.0156137 0 -0.146245)
(0.00820664 0 -0.139203)
(0.00477188 0 -0.125804)
(-0.0341751 0 -0.12171)
(-0.0718642 0 -0.114492)
(-0.12159 0 -0.0947766)
(-0.170597 0 -0.0817866)
(-0.0227229 0 -0.0404159)
(0.107947 0 -0.00236419)
(0.0768642 0 -0.00553717)
(0.0539066 0 -0.0156454)
(0.0321191 0 -0.00085573)
(0.0174054 0 -0.00207765)
(0.22719 0 -0.00145875)
(0.223972 0 -0.0060334)
(0.219782 0 -0.0118067)
(0.215298 0 -0.0168279)
(0.209785 0 -0.0227851)
(0.204034 0 -0.0323346)
(0.197105 0 -0.0428734)
(0.18933 0 -0.0524456)
(0.18019 0 -0.0622023)
(0.170141 0 -0.0766866)
(0.158255 0 -0.0909601)
(0.144235 0 -0.104114)
(0.128036 0 -0.114997)
(0.108155 0 -0.131867)
(0.0873303 0 -0.14505)
(0.0661644 0 -0.15406)
(0.0488361 0 -0.16339)
(0.0404812 0 -0.161713)
(0.0333687 0 -0.152868)
(-0.00190195 0 -0.155525)
(-0.0411205 0 -0.156309)
(-0.0809621 0 -0.138948)
(-0.13159 0 -0.126566)
(-0.00703711 0 -0.116263)
(0.137275 0 -0.0748767)
(0.113078 0 -0.056286)
(0.0799017 0 -0.0554557)
(0.0436335 0 -0.0193556)
(0.0212598 0 -0.00755687)
(0.232572 0 -0.000183013)
(0.231195 0 -0.0036692)
(0.22889 0 -0.00833072)
(0.226331 0 -0.0121335)
(0.222795 0 -0.0169203)
(0.219174 0 -0.0253883)
(0.214418 0 -0.0350472)
(0.209077 0 -0.043525)
(0.202414 0 -0.0526595)
(0.195428 0 -0.066557)
(0.186647 0 -0.0807418)
(0.176409 0 -0.0943974)
(0.163748 0 -0.106962)
(0.146605 0 -0.125999)
(0.127879 0 -0.143136)
(0.104727 0 -0.156278)
(0.0843363 0 -0.1708)
(0.0750436 0 -0.175056)
(0.0675915 0 -0.17291)
(0.0422104 0 -0.181596)
(0.0071933 0 -0.190913)
(-0.0335369 0 -0.183102)
(-0.074216 0 -0.172558)
(0.0139168 0 -0.171117)
(0.138376 0 -0.152304)
(0.11731 0 -0.11687)
(0.0921335 0 -0.0962476)
(0.0460519 0 -0.0629048)
(0.00915847 0 -0.0332383)
(0.234379 0 0.00120524)
(0.234919 0 -0.00125426)
(0.234362 0 -0.00481791)
(0.233622 0 -0.00740011)
(0.231956 0 -0.0109492)
(0.230361 0 -0.0182692)
(0.227657 0 -0.026907)
(0.22452 0 -0.0340999)
(0.220142 0 -0.0421965)
(0.215902 0 -0.0549841)
(0.210014 0 -0.0682202)
(0.203575 0 -0.0813949)
(0.194805 0 -0.0947362)
(0.181032 0 -0.113771)
(0.165301 0 -0.133281)
(0.141696 0 -0.148931)
(0.119625 0 -0.167696)
(0.111918 0 -0.177522)
(0.103383 0 -0.182707)
(0.100848 0 -0.196224)
(0.0761852 0 -0.210918)
(0.0176199 0 -0.221678)
(-0.0222756 0 -0.215056)
(0.0192619 0 -0.212748)
(0.106779 0 -0.200199)
(0.0968644 0 -0.153401)
(0.0770689 0 -0.122618)
(0.0377192 0 -0.108572)
(-0.00784931 0 -0.0815441)
(0.232774 0 0.00234443)
(0.234832 0 0.00113365)
(0.236182 0 -0.00136652)
(0.237293 0 -0.00251709)
(0.237407 0 -0.0048641)
(0.2378 0 -0.0111161)
(0.237088 0 -0.0186772)
(0.235879 0 -0.0245852)
(0.233612 0 -0.0313876)
(0.231696 0 -0.0429626)
(0.228363 0 -0.0551669)
(0.224722 0 -0.0668447)
(0.219393 0 -0.0798696)
(0.20941 0 -0.0970079)
(0.197234 0 -0.117045)
(0.175801 0 -0.133691)
(0.15361 0 -0.154597)
(0.149905 0 -0.169757)
(0.142984 0 -0.181318)
(0.15198 0 -0.201363)
(0.148591 0 -0.216963)
(0.0746608 0 -0.239047)
(0.0156611 0 -0.245935)
(0.0227444 0 -0.243719)
(0.0654081 0 -0.231281)
(0.0698887 0 -0.189135)
(0.0602825 0 -0.150735)
(0.0322051 0 -0.143989)
(-0.0068081 0 -0.129227)
(0.228267 0 0.00332667)
(0.231878 0 0.00324175)
(0.234593 0 0.00200424)
(0.237444 0 0.00225581)
(0.239382 0 0.00128289)
(0.241577 0 -0.0038881)
(0.242874 0 -0.0103571)
(0.243513 0 -0.0150609)
(0.243135 0 -0.0205044)
(0.243148 0 -0.0309632)
(0.242015 0 -0.0425012)
(0.240286 0 -0.0519449)
(0.237342 0 -0.0631903)
(0.230691 0 -0.078446)
(0.221864 0 -0.0970708)
(0.20455 0 -0.112648)
(0.184522 0 -0.133474)
(0.187925 0 -0.152974)
(0.185593 0 -0.170993)
(0.201396 0 -0.195868)
(0.210615 0 -0.215514)
(0.116475 0 -0.238701)
(0.0407332 0 -0.258524)
(0.020776 0 -0.253876)
(0.0264125 0 -0.246257)
(0.038922 0 -0.221064)
(0.0431927 0 -0.186064)
(0.0295292 0 -0.179381)
(0.00194584 0 -0.165234)
(0.220835 0 0.00440029)
(0.225645 0 0.00544003)
(0.229659 0 0.00530249)
(0.234156 0 0.00679013)
(0.237773 0 0.00722041)
(0.241651 0 0.00339258)
(0.244735 0 -0.00191001)
(0.247462 0 -0.00517986)
(0.249026 0 -0.00943161)
(0.251218 0 -0.0190771)
(0.251985 0 -0.0299484)
(0.251648 0 -0.0376407)
(0.250306 0 -0.0463302)
(0.245659 0 -0.0604755)
(0.239327 0 -0.0772988)
(0.226382 0 -0.0897332)
(0.210118 0 -0.107723)
(0.22507 0 -0.128901)
(0.229865 0 -0.153072)
(0.252358 0 -0.180591)
(0.268965 0 -0.205565)
(0.15545 0 -0.231625)
(0.0623899 0 -0.254289)
(0.0167487 0 -0.251739)
(-0.00375022 0 -0.24491)
(0.00998838 0 -0.236037)
(0.0210435 0 -0.21255)
(0.0189117 0 -0.208196)
(0.00485502 0 -0.194354)
(0.210979 0 0.00530974)
(0.216884 0 0.00734356)
(0.222015 0 0.00829797)
(0.227664 0 0.0110354)
(0.232675 0 0.012744)
(0.238151 0 0.0104567)
(0.242801 0 0.00650697)
(0.247581 0 0.00475881)
(0.25132 0 0.00184202)
(0.2554 0 -0.00677163)
(0.258568 0 -0.0167854)
(0.259789 0 -0.0235648)
(0.259987 0 -0.0303656)
(0.256371 0 -0.0441243)
(0.251495 0 -0.0598143)
(0.240579 0 -0.0684819)
(0.227828 0 -0.0813748)
(0.259964 0 -0.101181)
(0.276196 0 -0.128104)
(0.303392 0 -0.158321)
(0.326825 0 -0.186809)
(0.189797 0 -0.216685)
(0.0766404 0 -0.240355)
(0.00846595 0 -0.240358)
(-0.0355881 0 -0.234311)
(-0.0140936 0 -0.232572)
(-0.000342364 0 -0.220864)
(0.00586141 0 -0.223389)
(0.00319733 0 -0.214484)
(0.199328 0 0.00602393)
(0.205965 0 0.00883744)
(0.212081 0 0.0107697)
(0.218662 0 0.0147459)
(0.224634 0 0.0177308)
(0.231327 0 0.0169211)
(0.237374 0 0.0144747)
(0.243815 0 0.0143602)
(0.249465 0 0.0129684)
(0.255541 0 0.0060693)
(0.260755 0 -0.00271867)
(0.264868 0 -0.00828952)
(0.267177 0 -0.0142921)
(0.263904 0 -0.0284664)
(0.260455 0 -0.0436508)
(0.24796 0 -0.0501249)
(0.236421 0 -0.057812)
(0.290608 0 -0.0741355)
(0.323314 0 -0.0990338)
(0.356207 0 -0.131637)
(0.385523 0 -0.163466)
(0.213682 0 -0.195593)
(0.0774306 0 -0.220079)
(-0.00736603 0 -0.217177)
(-0.0756293 0 -0.213793)
(-0.0395134 0 -0.21582)
(-0.0171739 0 -0.212374)
(-0.00607675 0 -0.222439)
(5.81749e-05 0 -0.221431)
(0.186372 0 0.00651286)
(0.193839 0 0.0100033)
(0.200364 0 0.0127034)
(0.207424 0 0.0177248)
(0.214194 0 0.0219637)
(0.221819 0 0.0225246)
(0.228842 0 0.0215264)
(0.236403 0 0.0231657)
(0.243459 0 0.0234712)
(0.25148 0 0.0186793)
(0.258589 0 0.0117205)
(0.265743 0 0.00759941)
(0.271337 0 0.00254208)
(0.268988 0 -0.011177)
(0.266971 0 -0.0263009)
(0.250146 0 -0.032909)
(0.237352 0 -0.0379216)
(0.315516 0 -0.0507489)
(0.369481 0 -0.0706572)
(0.407163 0 -0.104513)
(0.442249 0 -0.13935)
(0.229838 0 -0.168302)
(0.0595827 0 -0.192888)
(-0.0260879 0 -0.184259)
(-0.110507 0 -0.18083)
(-0.0602873 0 -0.195419)
(-0.0240696 0 -0.195638)
(-0.0132203 0 -0.211594)
(-0.00183817 0 -0.216966)
(0.179906 0 0.0106123)
(0.17287 0 0.0068587)
(0.1873 0 0.0139782)
(0.195011 0 0.0200891)
(0.201944 0 0.0253879)
(0.210036 0 0.0270171)
(0.217825 0 0.0273467)
(0.22606 0 0.0307337)
(0.233946 0 0.032832)
(0.243386 0 0.0301283)
(0.252096 0 0.0252785)
(0.261382 0 0.0233485)
(0.269746 0 0.0195504)
(0.269832 0 0.00872346)
(0.269331 0 -0.00538376)
(0.247323 0 -0.0128148)
(0.232071 0 -0.0185644)
(0.332982 0 -0.0293084)
(0.412297 0 -0.044498)
(0.451921 0 -0.0794248)
(0.489707 0 -0.116173)
(0.225442 0 -0.135738)
(0.0152299 0 -0.157034)
(-0.0428701 0 -0.139633)
(-0.126897 0 -0.133512)
(-0.077965 0 -0.173852)
(-0.0286486 0 -0.181987)
(-0.0114057 0 -0.192563)
(-0.000136689 0 -0.204396)
(0.180761 0 0.0214815)
(0.173471 0 0.0146753)
(0.159032 0 0.0113342)
(0.140018 0 0.00711907)
(0.188398 0 0.0278732)
(0.196995 0 0.0305468)
(0.204926 0 0.0318985)
(0.213376 0 0.0368016)
(0.221731 0 0.0406697)
(0.232082 0 0.039836)
(0.241829 0 0.036986)
(0.252105 0 0.0376439)
(0.262083 0 0.0359402)
(0.263829 0 0.0288599)
(0.265357 0 0.0182583)
(0.240894 0 0.0115312)
(0.22081 0 0.00401385)
(0.339463 0 -0.00499943)
(0.444247 0 -0.0169892)
(0.485287 0 -0.0510898)
(0.527335 0 -0.0901806)
(0.22295 0 -0.104626)
(-0.0412451 0 -0.117121)
(-0.0753143 0 -0.0985789)
(-0.133353 0 -0.0845982)
(-0.0853471 0 -0.135461)
(-0.0359291 0 -0.166194)
(-0.0110921 0 -0.169229)
(0.00574292 0 -0.183063)
(0.182211 0 0.0327569)
(0.174053 0 0.0294468)
(0.159102 0 0.0229396)
(0.139833 0 0.0146866)
(0.122351 0 0.0106139)
(0.111536 0 0.00634597)
(0.190724 0 0.0351204)
(0.199356 0 0.0415117)
(0.207584 0 0.0469104)
(0.218365 0 0.047532)
(0.228767 0 0.0464236)
(0.239205 0 0.0495685)
(0.249697 0 0.0504706)
(0.252214 0 0.0467099)
(0.254454 0 0.0403486)
(0.232161 0 0.0367005)
(0.208704 0 0.0290362)
(0.322055 0 0.0200829)
(0.441967 0 0.0100747)
(0.504024 0 -0.00341726)
(0.549262 0 -0.0407118)
(0.211066 0 -0.0660385)
(-0.0952381 0 -0.0736754)
(-0.101183 0 -0.0684644)
(-0.135796 0 -0.05268)
(-0.0823105 0 -0.0969716)
(-0.0337204 0 -0.139271)
(-0.0168097 0 -0.136888)
(0.00733787 0 -0.149967)
(0.18369 0 0.0446121)
(0.17564 0 0.0370684)
(0.159472 0 0.0349303)
(0.139298 0 0.0300191)
(0.121473 0 0.0215772)
(0.110413 0 0.0124365)
(0.101739 0 0.00832427)
(0.0908519 0 0.00432401)
(0.192215 0 0.051495)
(0.203184 0 0.0533775)
(0.213675 0 0.0536016)
(0.223813 0 0.0589798)
(0.234145 0 0.0624849)
(0.236948 0 0.0611565)
(0.239369 0 0.0581269)
(0.220726 0 0.0577513)
(0.19816 0 0.0524377)
(0.292415 0 0.0442836)
(0.404225 0 0.0338009)
(0.481825 0 0.0467456)
(0.539746 0 0.0297025)
(0.204321 0 0.00318701)
(-0.129942 0 -0.0181924)
(-0.127202 0 -0.0423799)
(-0.136072 0 -0.037152)
(-0.0759241 0 -0.0682799)
(-0.0227653 0 -0.107331)
(-0.0203449 0 -0.10418)
(-0.00267371 0 -0.11146)
(0.186381 0 0.0572571)
(0.176126 0 0.0544196)
(0.159626 0 0.0475843)
(0.138964 0 0.0375241)
(0.120157 0 0.0329641)
(0.108742 0 0.0266143)
(0.0998924 0 0.0174136)
(0.0878285 0 0.0072129)
(0.0771561 0 0.00350295)
(0.0827937 0 0.000563303)
(0.197245 0 0.0586486)
(0.206997 0 0.066062)
(0.21669 0 0.0719973)
(0.219226 0 0.0722202)
(0.22166 0 0.0714073)
(0.207419 0 0.0743525)
(0.187973 0 0.0720399)
(0.2583 0 0.0652074)
(0.349591 0 0.0554535)
(0.430399 0 0.0835746)
(0.501193 0 0.0902719)
(0.237751 0 0.0739808)
(-0.0989583 0 0.0457955)
(-0.140932 0 -0.0183161)
(-0.136903 0 -0.0382558)
(-0.0696651 0 -0.0418131)
(-0.00995506 0 -0.0719461)
(-0.0216922 0 -0.0768595)
(-0.0192888 0 -0.0800503)
(0.188659 0 0.0709723)
(0.179796 0 0.0617411)
(0.160455 0 0.0608165)
(0.137773 0 0.0557546)
(0.118444 0 0.0453503)
(0.105725 0 0.0329508)
(0.0965744 0 0.0270574)
(0.0847795 0 0.0180681)
(0.0728498 0 0.00800217)
(0.0774785 0 -0.0024386)
(0.0837779 0 -0.00489993)
(0.0932306 0 -0.00654873)
(0.198195 0 0.0791256)
(0.200142 0 0.080341)
(0.201963 0 0.0808191)
(0.191896 0 0.0871601)
(0.176954 0 0.0880485)
(0.228689 0 0.0825632)
(0.296711 0 0.0742925)
(0.368621 0 0.103913)
(0.444763 0 0.125969)
(0.250973 0 0.124156)
(-0.0188129 0 0.107315)
(-0.0922172 0 0.0173625)
(-0.130634 0 -0.0402332)
(-0.0684621 0 -0.0226673)
(-0.00243322 0 -0.0295751)
(-0.021564 0 -0.046941)
(-0.033527 0 -0.0541427)
(0.179179 0 0.0857736)
(0.179363 0 0.083605)
(0.160575 0 0.0752595)
(0.137933 0 0.063022)
(0.116624 0 0.0585129)
(0.102451 0 0.0505767)
(0.092006 0 0.0379953)
(0.0785476 0 0.0218252)
(0.0669867 0 0.0136234)
(0.0718484 0 0.00353762)
(0.0775886 0 -0.00662293)
(0.0811485 0 -0.0200019)
(0.091127 0 -0.0206363)
(0.133926 0 -0.00977298)
(0.180721 0 0.0870933)
(0.175529 0 0.0967409)
(0.164548 0 0.100879)
(0.20217 0 0.0965705)
(0.252603 0 0.0898284)
(0.311221 0 0.11543)
(0.380721 0 0.140704)
(0.237308 0 0.150789)
(0.0420565 0 0.153288)
(-0.039276 0 0.0803809)
(-0.112722 0 -0.000870689)
(-0.0796137 0 0.00470886)
(-0.0165305 0 0.0184531)
(-0.0223478 0 -0.0128839)
(-0.0418724 0 -0.0285201)
(0.1561 0 0.103223)
(0.15852 0 0.0910113)
(0.147046 0 0.0906494)
(0.134757 0 0.0860035)
(0.113663 0 0.0730503)
(0.0989227 0 0.0572549)
(0.0869746 0 0.050109)
(0.0723512 0 0.0379669)
(0.0593844 0 0.0218741)
(0.0595678 0 0.00321356)
(0.0659087 0 -0.0057922)
(0.070079 0 -0.0240039)
(0.0740634 0 -0.0367657)
(0.112957 0 -0.0390815)
(0.155792 0 -0.0278353)
(0.184748 0 -0.0179022)
(0.150555 0 0.1105)
(0.180559 0 0.107545)
(0.21696 0 0.102306)
(0.258981 0 0.123607)
(0.316276 0 0.146183)
(0.206484 0 0.163449)
(0.0623402 0 0.178625)
(-0.00885571 0 0.135942)
(-0.0892852 0 0.0720828)
(-0.0840573 0 0.0635258)
(-0.0512126 0 0.0645469)
(-0.0322349 0 0.0292094)
(-0.0376434 0 0.00282063)
(0.158591 0 0.115028)
(0.135536 0 0.116021)
(0.127301 0 0.10833)
(0.107273 0 0.0933379)
(0.0970666 0 0.0885569)
(0.0931446 0 0.0803631)
(0.0804517 0 0.0640285)
(0.0643362 0 0.0436582)
(0.050532 0 0.0327661)
(0.047295 0 0.016941)
(0.0492364 0 -0.0011853)
(0.0497552 0 -0.0298844)
(0.054675 0 -0.0457514)
(0.0877993 0 -0.0568404)
(0.127679 0 -0.0582335)
(0.168458 0 -0.0634918)
(0.189909 0 -0.0517602)
(0.272257 0 -0.0154992)
(0.188782 0 0.111822)
(0.218833 0 0.1293)
(0.260563 0 0.148076)
(0.16704 0 0.165866)
(0.0567763 0 0.187554)
(0.00210387 0 0.167595)
(-0.0692207 0 0.131325)
(-0.0733427 0 0.121256)
(-0.0674911 0 0.106235)
(-0.0449297 0 0.0752329)
(-0.0268588 0 0.0465486)